<?xml version="1.0"?>
<VTKFile type="UnstructuredGrid" version="0.1" byte_order="LittleEndian" header_type="UInt32" compressor="vtkZLibDataCompressor">
  <UnstructuredGrid>
    <Piece NumberOfPoints="11" NumberOfCells="1">
      <PointData>
        <DataArray type="Float64" Name="base_vector_1" NumberOfComponents="3" format="ascii" RangeMin="1" RangeMax="1">
          -0.9363764104172783 -0.18053011458983517 -0.30101178671313517 -0.9363764104172783 -0.18053011458983517 -0.30101178671313517
          -0.9363764104172783 -0.18053011458983517 -0.30101178671313517 -0.9363764104172783 -0.18053011458983517 -0.30101178671313517
          -0.9363764104172783 -0.18053011458983517 -0.30101178671313517 -0.9363764104172783 -0.18053011458983517 -0.30101178671313517
          -0.9363764104172783 -0.18053011458983517 -0.30101178671313517 -0.9363764104172783 -0.18053011458983517 -0.30101178671313517
          -0.9363764104172783 -0.18053011458983517 -0.30101178671313517 -0.9363764104172783 -0.18053011458983517 -0.30101178671313517
          -0.9363764104172783 -0.18053011458983517 -0.30101178671313517
          <InformationKey name="L2_NORM_RANGE" location="vtkDataArray" length="2">
            <Value index="0">
              1
            </Value>
            <Value index="1">
              1
            </Value>
          </InformationKey>
        </DataArray>
        <DataArray type="Float64" Name="base_vector_2" NumberOfComponents="3" format="ascii" RangeMin="1" RangeMax="1">
          -0.17186802557043382 0.9835694574996628 -0.05524947113176492 -0.17186802557043382 0.9835694574996628 -0.05524947113176492
          -0.17186802557043382 0.9835694574996628 -0.05524947113176492 -0.17186802557043382 0.9835694574996628 -0.05524947113176492
          -0.17186802557043382 0.9835694574996628 -0.05524947113176492 -0.17186802557043382 0.9835694574996628 -0.05524947113176492
          -0.17186802557043382 0.9835694574996628 -0.05524947113176492 -0.17186802557043382 0.9835694574996628 -0.05524947113176492
          -0.17186802557043382 0.9835694574996628 -0.05524947113176492 -0.17186802557043382 0.9835694574996628 -0.05524947113176492
          -0.17186802557043382 0.9835694574996628 -0.05524947113176492
          <InformationKey name="L2_NORM_RANGE" location="vtkDataArray" length="2">
            <Value index="0">
              1
            </Value>
            <Value index="1">
              1
            </Value>
          </InformationKey>
        </DataArray>
        <DataArray type="Float64" Name="base_vector_3" NumberOfComponents="3" format="ascii" RangeMin="1" RangeMax="1">
          0.3060401931128878 0 -0.9520185923601632 0.3060401931128878 0 -0.9520185923601632
          0.3060401931128878 0 -0.9520185923601632 0.3060401931128878 0 -0.9520185923601632
          0.3060401931128878 0 -0.9520185923601632 0.3060401931128878 0 -0.9520185923601632
          0.3060401931128878 0 -0.9520185923601632 0.3060401931128878 0 -0.9520185923601632
          0.3060401931128878 0 -0.9520185923601632 0.3060401931128878 0 -0.9520185923601632
          0.3060401931128878 0 -0.9520185923601632
          <InformationKey name="L2_NORM_RANGE" location="vtkDataArray" length="2">
            <Value index="0">
              1
            </Value>
            <Value index="1">
              1
            </Value>
          </InformationKey>
        </DataArray>
      </PointData>
      <CellData>
      </CellData>
      <Points>
        <DataArray type="Float64" Name="Points" NumberOfComponents="3" format="ascii" RangeMin="247.92096127221953" RangeMax="254.65766834306507">
          -7.1250569690778525 -210.04983385893243 -131.50324671719574 -8.559995471458677 -210.326485010523 -131.96452852397752
          -9.981134503464963 -210.60047567222907 -132.42137429073637 -14.271264655996973 -211.42759784171724 -133.80049889071435
          -15.689417061682757 -211.70101269225822 -134.25638456309773 -17.124176383395646 -211.97762929843933 -134.71760876965337
          -18.495193531275504 -212.241956635243 -135.15834212934337 -19.78860612435022 -212.4913220838404 -135.57412837862014
          -21.159911051185567 -212.7557049034256 -136.01495424903192 -22.658913473724702 -213.0447073559658 -136.49683033270506
          -24.12354049792891 -213.32708235128754 -136.96765594569504
          <InformationKey name="L2_NORM_RANGE" location="vtkDataArray" length="2">
            <Value index="0">
              247.92096127
            </Value>
            <Value index="1">
              254.65766834
            </Value>
          </InformationKey>
        </DataArray>
      </Points>
      <Cells>
        <DataArray type="Int64" Name="connectivity" format="ascii" RangeMin="0" RangeMax="10">
          0 1 2 3 4 5
          6 7 8 9 10
        </DataArray>
        <DataArray type="Int64" Name="offsets" format="ascii" RangeMin="11" RangeMax="11">
          11
        </DataArray>
        <DataArray type="UInt8" Name="types" format="ascii" RangeMin="4" RangeMax="4">
          4
        </DataArray>
      </Cells>
    </Piece>
  </UnstructuredGrid>
</VTKFile>
