<?xml version="1.0"?>
<VTKFile type="UnstructuredGrid" version="0.1" byte_order="LittleEndian" header_type="UInt32" compressor="vtkZLibDataCompressor">
  <UnstructuredGrid>
    <Piece NumberOfPoints="11" NumberOfCells="1">
      <PointData>
        <DataArray type="Float64" Name="base_vector_1" NumberOfComponents="3" format="ascii" RangeMin="0.9999999999999998" RangeMax="1.0000000000000002">
          -0.9363764104172783 -0.18053011458983517 -0.30101178671313517 -0.939102169554235 -0.18802450747205704 -0.2876350113049865
          -0.9383709957064759 -0.18319670656191916 -0.29308504076752767 -0.9310135675372604 -0.17638401113073032 -0.31953468932023354
          -0.9276140990017065 -0.19503398138210656 -0.3185809621422736 -0.9242994504462354 -0.20994655098713283 -0.31873652384594175
          -0.9221238092737973 -0.20325817740865237 -0.3292017522536822 -0.9159052587603524 -0.2024020112546431 -0.3466280179316259
          -0.9065602337099128 -0.21275021778263212 -0.36453516632729766 -0.8983312814768225 -0.21702080618601371 -0.38197235292961007
          -0.8918826356910281 -0.20737679910250315 -0.4019206729527914
          <InformationKey name="L2_NORM_RANGE" location="vtkDataArray" length="2">
            <Value index="0">
              1
            </Value>
            <Value index="1">
              1
            </Value>
          </InformationKey>
        </DataArray>
        <DataArray type="Float64" Name="base_vector_2" NumberOfComponents="3" format="ascii" RangeMin="1" RangeMax="1">
          -0.17186802557043382 0.9835694574996628 -0.05524947113176492 -0.17903451827953307 0.982161153485894 -0.057498781271204405
          -0.17441198303629057 0.983075138930087 -0.056068987782363744 -0.1679639589571924 0.9843154322178621 -0.05395589299779883
          -0.18560383229583302 0.9807903763599457 -0.06001212441512385 -0.19970881097427134 0.977705868567477 -0.06486621145063337
          -0.19344585706681477 0.9791074335416304 -0.06266844474859123 -0.19277730599881612 0.9792549853715182 -0.06242262343787283
          -0.20263559002048956 0.9770092975365552 -0.06626952681417726 -0.20686335512629028 0.9760026049329663 -0.06801814074170501
          -0.19841650690286686 0.9780050595691853 -0.06431946241643315
          <InformationKey name="L2_NORM_RANGE" location="vtkDataArray" length="2">
            <Value index="0">
              1
            </Value>
            <Value index="1">
              1
            </Value>
          </InformationKey>
        </DataArray>
        <DataArray type="Float64" Name="base_vector_3" NumberOfComponents="3" format="ascii" RangeMin="0.9999999999999998" RangeMax="1.0000000000000002">
          0.3060401931128878 0 -0.9520185923601632 0.29331511451499537 -0.0025006345491961623 -0.9560125472104992
          0.298396271072857 -0.0014959687350543302 -0.9544408978492895 0.32403988265793826 0.0034366430128435696 -0.9460371789373991
          0.3241655453165141 0.0034617547515862768 -0.9459940356491088 0.3252490072606373 0.0036986885949957735 -0.9456211730807678
          0.3350617566271439 0.005894650119775333 -0.942177728640355 0.35207167916060933 0.009648806408203214 -0.9359233052274776
          0.3702531030428726 0.013790480795443386 -0.9288285430188685 0.3875673632107124 0.017913258956335894 -0.9216673229139998
          0.40641881592919543 0.022382284313144016 -0.9134127103383423
          <InformationKey name="L2_NORM_RANGE" location="vtkDataArray" length="2">
            <Value index="0">
              1
            </Value>
            <Value index="1">
              1
            </Value>
          </InformationKey>
        </DataArray>
      </PointData>
      <CellData>
      </CellData>
      <Points>
        <DataArray type="Float64" Name="Points" NumberOfComponents="3" format="ascii" RangeMin="247.92096127221953" RangeMax="255.10458210767234">
          -7.1250569690778525 -210.04983385893243 -131.50324671719574 -8.562427071458275 -210.3338065558474 -131.95179808901665
          -9.98754340569137 -210.6170567104112 -132.39009907730812 -14.268111866612285 -211.42017234389172 -133.80716423087182
          -15.67571416701581 -211.6982335771517 -134.29128629757625 -17.093928378089846 -212.01266868276375 -134.77820090993652
          -18.44577244214475 -212.31649981931648 -135.251186636099 -19.71583499057317 -212.59417989813758 -135.717292341079
          -21.04981689274809 -212.89810271413407 -136.2387401741054 -22.494044341925118 -213.2439639276919 -136.8358011818856
          -23.893654471942575 -213.5775895866517 -137.44836963260542
          <InformationKey name="L2_NORM_RANGE" location="vtkDataArray" length="2">
            <Value index="0">
              247.92096127
            </Value>
            <Value index="1">
              255.10458211
            </Value>
          </InformationKey>
        </DataArray>
      </Points>
      <Cells>
        <DataArray type="Int64" Name="connectivity" format="ascii" RangeMin="0" RangeMax="10">
          0 1 2 3 4 5
          6 7 8 9 10
        </DataArray>
        <DataArray type="Int64" Name="offsets" format="ascii" RangeMin="11" RangeMax="11">
          11
        </DataArray>
        <DataArray type="UInt8" Name="types" format="ascii" RangeMin="4" RangeMax="4">
          4
        </DataArray>
      </Cells>
    </Piece>
  </UnstructuredGrid>
</VTKFile>
