<?xml version="1.0"?>
<VTKFile type="UnstructuredGrid" version="0.1" byte_order="LittleEndian" header_type="UInt32" compressor="vtkZLibDataCompressor">
  <UnstructuredGrid>
    <Piece NumberOfPoints="60" NumberOfCells="20">
      <PointData>
        <DataArray type="Float64" Name="node_value" format="ascii" RangeMin="0.5" RangeMax="1">
          1 0.5 1 1 0.5 1
          1 0.5 1 1 0.5 1
          1 0.5 1 1 0.5 1
          1 0.5 1 1 0.5 1
          1 0.5 1 1 0.5 1
          1 0.5 1 1 0.5 1
          1 0.5 1 1 0.5 1
          1 0.5 1 1 0.5 1
          1 0.5 1 1 0.5 1
          1 0.5 1 1 0.5 1
        </DataArray>
        <DataArray type="Float64" Name="base_vector_1" NumberOfComponents="3" format="ascii" RangeMin="0.9999999999999999" RangeMax="1.0000000000000007">
          0.3145631741091585 0.9075007882318895 -0.27837444001357287 0.15473121482960517 0.9710338543942438 -0.18207554689637329
          0.0037315950658299846 0.9982902462508614 -0.058332318989215814 0.0037315950658299846 0.9982902462508614 -0.058332318989215814
          -0.13009142215417902 0.9877637712484013 0.08601717323325303 -0.23934275559359763 0.9400361240713634 0.24299615384970977
          -0.23934275559359763 0.9400361240713634 0.24299615384970977 -0.3179851591732443 0.8577447421012141 0.40392993939950594
          -0.36167284115107157 0.7454370602067942 0.5599253032717534 -0.36167284115107157 0.7454370602067942 0.5599253032717534
          -0.36799161326570273 0.6093192187694936 0.7023619168236843 -0.3365922991641046 0.45691311137773105 0.8233687101138492
          -0.3365922991641046 0.45691311137773105 0.8233687101138492 -0.2692100299424492 0.2966407237897359 0.9162588284801885
          -0.1695683605254954 0.13735873365972956 0.975899149193241 -0.1695683605254954 0.13735873365972956 0.975899149193241
          -0.04317350542864029 -0.012130910879271206 0.9989939386353865 0.10298993553281474 -0.14356738827059473 0.9842669750652551
          0.10298993553281474 -0.14356738827059473 0.9842669750652551 0.26084494734144226 -0.24968749784829933 0.9325320728343323
          0.42166843691344424 -0.3246270254623056 0.846648110876336 0.42166843691344424 -0.3246270254623056 0.846648110876336
          0.576573272611226 -0.3642448008859427 0.7313610506021913 0.7169993885525588 -0.36635153954196675 0.5930416733168831
          0.7169993885525588 -0.36635153954196675 0.5930416733168831 0.8351868152140335 -0.33083082271684294 0.43933352983028406
          0.9246044965823498 -0.2596455308773912 0.2787305566225161 0.9246044965823498 -0.2596455308773912 0.2787305566225161
          0.9803111973493843 -0.15672937458368832 0.12010769956177865 0.9992285563619852 -0.027769517017255448 -0.027769517017254896
          0.9992285563619852 -0.027769517017255448 -0.027769517017254896 0.9803111973493845 0.1201076995617787 -0.15672937458368838
          0.9246044965823503 0.27873055662251567 -0.2596455308773905 0.9246044965823503 0.27873055662251567 -0.2596455308773905
          0.8351868152140336 0.4393335298302843 -0.3308308227168426 0.7169993885525595 0.5930416733168817 -0.3663515395419661
          0.7169993885525595 0.5930416733168817 -0.3663515395419661 0.5765732726112265 0.731361050602191 -0.3642448008859425
          0.42166843691344436 0.846648110876336 -0.32462702546230504 0.42166843691344436 0.846648110876336 -0.32462702546230504
          0.26084494734144203 0.9325320728343325 -0.24968749784829875 0.10298993553281599 0.9842669750652551 -0.143567388270595
          0.10298993553281599 0.9842669750652551 -0.143567388270595 -0.043173505428639736 0.9989939386353868 -0.012130910879271206
          -0.1695683605254943 0.9758991491932413 0.13735873365972942 -0.1695683605254943 0.9758991491932413 0.13735873365972942
          -0.26921002994244914 0.9162588284801887 0.29664072378973605 -0.3365922991641048 0.823368710113849 0.45691311137773105
          -0.3365922991641048 0.823368710113849 0.45691311137773105 -0.3679916132657025 0.7023619168236847 0.6093192187694931
          -0.36167284115107173 0.5599253032717539 0.7454370602067935 -0.36167284115107173 0.5599253032717539 0.7454370602067935
          -0.3179851591732447 0.40392993939950605 0.8577447421012141 -0.23934275559359824 0.24299615384971007 0.9400361240713632
          -0.23934275559359824 0.24299615384971007 0.9400361240713632 -0.1300914221541796 0.08601717323325359 0.9877637712484013
          0.003731595065829957 -0.05833231898921604 0.9982902462508614 0.003731595065829957 -0.05833231898921604 0.9982902462508614
          0.15473121482960453 -0.18207554689637342 0.9710338543942441 0.31456317410915796 -0.2783744400135731 0.9075007882318898
          <InformationKey name="L2_NORM_RANGE" location="vtkDataArray" length="2">
            <Value index="0">
              1
            </Value>
            <Value index="1">
              1
            </Value>
          </InformationKey>
        </DataArray>
        <DataArray type="Float64" Name="base_vector_2" NumberOfComponents="3" format="ascii" RangeMin="0.9999999999999999" RangeMax="1.0000000000000004">
          0.48413153463465375 0.09887190041580202 0.8693911688535045 0.587981924122303 0.05759146003300619 0.8068212197486513
          0.6860935245534001 0.039881692079859477 0.7264193872707008 0.6860935245534001 0.039881692079859477 0.7264193872707008
          0.7730446732683003 0.04672124115292986 0.6326286894827303 0.8440304359459908 0.0777321526815512 0.5306320152764181
          0.8440304359459908 0.0777321526815512 0.5306320152764181 0.8951281280396395 0.1312007587575713 0.42606571710674956
          0.9235140829491614 0.2041723756967786 0.32470814525802105 0.9235140829491614 0.2041723756967786 0.32470814525802105
          0.9276196882870795 0.2926145803296919 0.23216033528718932 0.9072180676487903 0.3916400423478862 0.1535364939072843
          0.9072180676487903 0.3916400423478862 0.1535364939072843 0.8634366178387973 0.4957765989549229 0.09318138711024043
          0.7986947087438121 0.5992696474536727 0.05443024770647592 0.7986947087438121 0.5992696474536727 0.05443024770647592
          0.7165699885676355 0.696400145507521 0.03942446982880393 0.6216006824218407 0.7818006463303857 0.048993275151734406
          0.6216006824218407 0.7818006463303857 0.048993275151734406 0.5190348092835982 0.8507519046506387 0.08260788996972401
          0.41454017563149204 0.8994436629561411 0.13841076531632762 0.41454017563149204 0.8994436629561411 0.13841076531632762
          0.31389117155716806 0.9251852069309778 0.21331822541581494 0.2226496770495631 0.926554054756926 0.3031908720974724
          0.2226496770495631 0.926554054756926 0.3031908720974724 0.1458577116212366 0.9034745636851953 0.4030623285975291
          0.08775881150739644 0.8572221100667734 0.5074136823297911 0.08775881150739644 0.8572221100667734 0.5074136823297911
          0.0515635311779477 0.7903526118522193 0.6104784608737939 0.039272027586352724 0.7065612881588039 0.7065612881588041
          0.039272027586352724 0.7065612881588039 0.7065612881588041 0.05156353117794778 0.6104784608737936 0.7903526118522196
          0.0877588115073962 0.5074136823297908 0.8572221100667738 0.0877588115073962 0.5074136823297908 0.8572221100667738
          0.1458577116212366 0.40306232859752855 0.9034745636851956 0.22264967704956246 0.30319087209747236 0.9265540547569256
          0.22264967704956246 0.30319087209747236 0.9265540547569256 0.31389117155716817 0.21331822541581458 0.9251852069309778
          0.4145401756314921 0.13841076531632712 0.899443662956141 0.4145401756314921 0.13841076531632712 0.899443662956141
          0.519034809283599 0.08260788996972335 0.8507519046506383 0.6216006824218405 0.04899327515173402 0.7818006463303862
          0.6216006824218405 0.04899327515173402 0.7818006463303862 0.7165699885676358 0.039424469828803654 0.6964001455075213
          0.7986947087438122 0.0544302477064752 0.5992696474536731 0.7986947087438122 0.0544302477064752 0.5992696474536731
          0.8634366178387978 0.0931813871102406 0.4957765989549227 0.9072180676487901 0.1535364939072842 0.39164004234788646
          0.9072180676487901 0.1535364939072842 0.39164004234788646 0.9276196882870794 0.2321603352871887 0.2926145803296922
          0.9235140829491613 0.32470814525802016 0.20417237569677915 0.9235140829491613 0.32470814525802016 0.20417237569677915
          0.8951281280396396 0.42606571710674956 0.13120075875757153 0.8440304359459909 0.5306320152764177 0.0777321526815517
          0.8440304359459909 0.5306320152764177 0.0777321526815517 0.7730446732683005 0.6326286894827302 0.046721241152930026
          0.6860935245534001 0.7264193872707009 0.03988169207985953 0.6860935245534001 0.7264193872707009 0.03988169207985953
          0.5879819241223031 0.8068212197486513 0.05759146003300658 0.4841315346346538 0.8693911688535045 0.09887190041580246
          <InformationKey name="L2_NORM_RANGE" location="vtkDataArray" length="2">
            <Value index="0">
              1
            </Value>
            <Value index="1">
              1
            </Value>
          </InformationKey>
        </DataArray>
        <DataArray type="Float64" Name="base_vector_3" NumberOfComponents="3" format="ascii" RangeMin="0.9999999999999999" RangeMax="1.0000000000000007">
          0.8164965809277258 -0.4082482904638632 -0.40824829046386335 0.7939367154016681 -0.23189755788176275 -0.5620391575199059
          0.7275037805840996 -0.042732129331946866 -0.684771651252153 0.7275037805840996 -0.042732129331946866 -0.684771651252153
          0.6208688710294712 0.14879468348790573 -0.7696635545173776 0.4799246488165452 0.3320990784094115 -0.8120237272259571
          0.4799246488165452 0.3320990784094115 -0.8120237272259571 0.3124597141037827 0.497051625386297 -0.8095113394900797
          0.12772820584460678 0.6345370204114074 -0.7622652262560137 0.12772820584460678 0.6345370204114074 -0.7622652262560137
          -0.06406158340446638 0.7369577986673408 -0.6728962152628744 -0.25231131935570694 0.7986541716418113 -0.5463428522861038
          -0.25231131935570694 0.7986541716418113 -0.5463428522861038 -0.4266182916302164 0.8162167879418993 -0.3895984963116828
          -0.5773502691896255 0.7886751345948133 -0.2113248654051874 -0.5773502691896255 0.7886751345948133 -0.2113248654051874
          -0.6961777789567705 0.7175511677492712 -0.021373388792500447 -0.776534393824027 0.6067752091364247 0.16975918468760232
          -0.776534393824027 0.6067752091364247 0.16975918468760232 -0.813979594460684 0.4624687558652658 0.3515108385954183
          -0.8064441531181092 0.2926062055178178 0.5138379476002918 -0.8064441531181092 0.2926062055178178 0.5138379476002918
          -0.7543444794845717 0.10657418966918744 0.6477702898153842 -0.6605596098195705 -0.08534713286766825 0.7459067426872388
          -0.6605596098195705 -0.08534713286766825 0.7459067426872388 -0.5302721109517796 -0.27255215925459697 0.8028242702063763
          -0.37068169081101 -0.4446959099295457 0.8153776007405553 -0.37068169081101 -0.4446959099295457 0.8153776007405553
          -0.19060734142177577 -0.5922656938241329 0.7828730352459085 -3.95516952522712e-16 -0.7071067811865477 0.7071067811865476
          -3.95516952522712e-16 -0.7071067811865477 0.7071067811865476 0.1906073414217758 -0.7828730352459089 0.5922656938241325
          0.3706816908110093 -0.815377600740556 0.4446959099295457 0.3706816908110093 -0.815377600740556 0.4446959099295457
          0.5302721109517796 -0.8028242702063765 0.2725521592545965 0.6605596098195692 -0.7459067426872391 0.08534713286766907
          0.6605596098195692 -0.7459067426872391 0.08534713286766907 0.7543444794845715 -0.6477702898153845 -0.10657418966918752
          0.8064441531181091 -0.5138379476002916 -0.2926062055178181 0.8064441531181091 -0.5138379476002916 -0.2926062055178181
          0.8139795944606836 -0.3515108385954179 -0.46246875586526665 0.7765343938240273 -0.16975918468760337 -0.6067752091364242
          0.7765343938240273 -0.16975918468760337 -0.6067752091364242 0.6961777789567707 0.021373388792500114 -0.7175511677492713
          0.5773502691896262 0.21132486540518677 -0.7886751345948131 0.5773502691896262 0.21132486540518677 -0.7886751345948131
          0.42661829163021636 0.3895984963116829 -0.8162167879418996 0.25231131935570716 0.5463428522861038 -0.7986541716418111
          0.25231131935570716 0.5463428522861038 -0.7986541716418111 0.06406158340446716 0.6728962152628737 -0.736957798667341
          -0.12772820584460537 0.7622652262560135 -0.6345370204114078 -0.12772820584460537 0.7622652262560135 -0.6345370204114078
          -0.3124597141037826 0.8095113394900797 -0.4970516253862972 -0.4799246488165446 0.8120237272259572 -0.3320990784094121
          -0.4799246488165446 0.8120237272259572 -0.3320990784094121 -0.620868871029471 0.7696635545173776 -0.1487946834879065
          -0.7275037805840998 0.6847716512521529 0.04273212933194703 -0.7275037805840998 0.6847716512521529 0.04273212933194703
          -0.7939367154016683 0.562039157519906 0.23189755788176233 -0.8164965809277261 0.4082482904638634 0.40824829046386274
          <InformationKey name="L2_NORM_RANGE" location="vtkDataArray" length="2">
            <Value index="0">
              1
            </Value>
            <Value index="1">
              1
            </Value>
          </InformationKey>
        </DataArray>
      </PointData>
      <CellData>
        <DataArray type="Float64" Name="cross_section_radius" format="ascii" RangeMin="0.05" RangeMax="0.05">
          0.05 0.05 0.05 0.05 0.05 0.05
          0.05 0.05 0.05 0.05 0.05 0.05
          0.05 0.05 0.05 0.05 0.05 0.05
          0.05 0.05
        </DataArray>
      </CellData>
      <Points>
        <DataArray type="Float64" Name="Points" NumberOfComponents="3" format="ascii" RangeMin="1" RangeMax="5.636798975650655">
          1 0 0 1.0537487305804878 0.21615855384608818 -0.053400933480465984
          1.0716752500896518 0.44278026313544394 -0.08144281133287623 1.0716752500896518 0.44278026313544394 -0.08144281133287623
          1.0567769946794638 0.6713300346075415 -0.07858797644867593 1.0138653027897953 0.8931662299786798 -0.04100612898403583
          1.0138653027897953 0.8931662299786798 -0.04100612898403583 0.949299539820243 1.10001820424933 0.03321401066097612
          0.8706356785857071 1.2844433428635333 0.14395908422741843 0.8706356785857071 1.2844433428635333 0.14395908422741843
          0.786208755055693 1.440238341774163 0.28909735979291235 0.7046722729396613 1.562782003012163 0.464596531617054
          0.7046722729396613 1.562782003012163 0.464596531617054 0.6345200096943635 1.649290602822034 0.6647465459985906
          0.5836166490293344 1.6989717206797446 0.882475139752019 0.5836166490293344 1.6989717206797446 0.882475139752019
          0.5587631772330077 1.7130680285770459 1.109738654597154 0.5653210595876702 1.6947886207693685 1.3379665309962785
          0.5653210595876702 1.6947886207693685 1.3379665309962785 0.6069159649443904 1.649131678716364 1.5585349186386726
          0.6852374106850871 1.5826082707787121 1.7632432317817373 0.6852374106850871 1.5826082707787121 1.7632432317817373
          0.7999453997230244 1.502882549543916 1.9447673149247056 0.9486892087959539 1.4183482295341492 2.097064176807653
          0.9486892087959539 1.4183482295341492 2.097064176807653 1.1272372898078329 1.3376647492054405 2.215705927070592
          1.329711105850294 1.269278748999973 2.298124462179708 1.329711105850294 1.269278748999973 2.298124462179708
          1.5489099800880917 1.2209573086505023 2.3437533792374907 1.7767090063073985 1.1993587371177719 2.354059275497024
          1.7767090063073985 1.1993587371177719 2.354059275497024 2.0045080325267057 1.2096646333773051 2.3324607039642933
          2.223706906764503 1.255293550435088 2.284139263614823 2.223706906764503 1.255293550435088 2.284139263614823
          2.4261807228069645 1.337712085544204 2.215753263409355 2.6047288038188428 1.4563538358071424 2.1350697830806475
          2.6047288038188428 1.4563538358071424 2.1350697830806475 2.753472612891773 1.60865069769009 2.05053546307088
          2.86818060192971 1.7901747808330586 1.9708097418360837 2.86818060192971 1.7901747808330586 1.9708097418360837
          2.9465020476704065 1.9948830939761237 1.904286333898432 2.988096953027127 2.215451481618517 1.858629391845428
          2.988096953027127 2.215451481618517 1.858629391845428 2.9946548353817897 2.4436793580176417 1.8403499840377502
          2.969801363585463 2.6709428728627764 1.8544462919350517 2.969801363585463 2.6709428728627764 1.8544462919350517
          2.9188980029204337 2.888671466616205 1.9041274097927625 2.8487457396751363 3.0888214809977415 1.9906360096026334
          2.8487457396751363 3.0888214809977415 1.9906360096026334 2.767209257559105 3.264320652821883 2.1131796708406334
          2.682782334029091 3.409458928387377 2.268974669751263 2.682782334029091 3.409458928387377 2.268974669751263
          2.6041184727945543 3.5202040019538194 2.4533998083654667 2.5395527098250024 3.594424141598831 2.660251782636117
          2.5395527098250024 3.594424141598831 2.660251782636117 2.496641017935334 3.632005989063471 2.882087978007255
          2.4817427625251454 3.634860823947671 3.1106377494793533 2.4817427625251454 3.634860823947671 3.1106377494793533
          2.4996692820343096 3.6068189460952613 3.3372594587687088 2.5534180126147974 3.5534180126147956 3.553418012614797
          <InformationKey name="L2_NORM_RANGE" location="vtkDataArray" length="2">
            <Value index="0">
              1
            </Value>
            <Value index="1">
              5.6367989757
            </Value>
          </InformationKey>
        </DataArray>
      </Points>
      <Cells>
        <DataArray type="Int64" Name="connectivity" format="ascii" RangeMin="0" RangeMax="59">
          0 1 2 3 4 5
          6 7 8 9 10 11
          12 13 14 15 16 17
          18 19 20 21 22 23
          24 25 26 27 28 29
          30 31 32 33 34 35
          36 37 38 39 40 41
          42 43 44 45 46 47
          48 49 50 51 52 53
          54 55 56 57 58 59
        </DataArray>
        <DataArray type="Int64" Name="offsets" format="ascii" RangeMin="3" RangeMax="60">
          3 6 9 12 15 18
          21 24 27 30 33 36
          39 42 45 48 51 54
          57 60
        </DataArray>
        <DataArray type="UInt8" Name="types" format="ascii" RangeMin="4" RangeMax="4">
          4 4 4 4 4 4
          4 4 4 4 4 4
          4 4 4 4 4 4
          4 4
        </DataArray>
      </Cells>
    </Piece>
  </UnstructuredGrid>
</VTKFile>
