<?xml version="1.0"?>
<VTKFile type="UnstructuredGrid" version="0.1" byte_order="LittleEndian" header_type="UInt32" compressor="vtkZLibDataCompressor">
  <UnstructuredGrid>
    <Piece NumberOfPoints="11" NumberOfCells="1">
      <PointData>
        <DataArray type="Float64" Name="base_vector_1" NumberOfComponents="3" format="ascii" RangeMin="0.9999999999999998" RangeMax="1.0000000000000002">
          -0.9363764104172783 -0.18053011458983517 -0.30101178671313517 -0.9477217844384056 -0.2175280480944658 -0.23346298977160357
          -0.9456542304865796 -0.1937243335175379 -0.2611684494076976 -0.9059565299426131 -0.1591527780980496 -0.3923176762242714
          -0.8871532522995182 -0.25196772820484514 -0.3866152750185594 -0.8641652707973544 -0.3247601449966793 -0.3843816241308509
          -0.8514906536393771 -0.2910991198513489 -0.43614787536632127 -0.8076036385701273 -0.2831915563825238 -0.5172802967076316
          -0.7356405000939958 -0.3269494519220953 -0.5932428764926698 -0.6672359165844686 -0.3385847450020768 -0.6634429908225442
          -0.6082329142883158 -0.27944493483240657 -0.7429422927609212
          <InformationKey name="L2_NORM_RANGE" location="vtkDataArray" length="2">
            <Value index="0">
              1
            </Value>
            <Value index="1">
              1
            </Value>
          </InformationKey>
        </DataArray>
        <DataArray type="Float64" Name="base_vector_2" NumberOfComponents="3" format="ascii" RangeMin="0.9999999999999999" RangeMax="1">
          -0.17186802557043382 0.9835694574996628 -0.05524947113176492 -0.2078826455691472 0.9759605581834787 -0.06546598003058564
          -0.1845717005056041 0.9810238322502459 -0.05937615623725593 -0.15258690542805445 0.9871194449696092 -0.048087811915085564
          -0.23773855609430816 0.9675960504283874 -0.08507797683054699 -0.30446372333726535 0.9456227410129201 -0.11445292853754731
          -0.27535747149557716 0.9560708469567671 -0.10053257427785516 -0.27233806598967236 0.9571160054133736 -0.0987974189670554
          -0.3141205653695099 0.9405967680079629 -0.1288642325275478 -0.3305638333459566 0.9327959688659943 -0.1435939850793819
          -0.3004412261936376 0.9473919078678031 -0.11037953845648911
          <InformationKey name="L2_NORM_RANGE" location="vtkDataArray" length="2">
            <Value index="0">
              1
            </Value>
            <Value index="1">
              1
            </Value>
          </InformationKey>
        </DataArray>
        <DataArray type="Float64" Name="base_vector_3" NumberOfComponents="3" format="ascii" RangeMin="0.9999999999999998" RangeMax="1.0000000000000002">
          0.3060401931128878 0 -0.9520185923601632 0.24209135666532255 -0.013510631458391948 -0.9701593878665189
          0.2677150793946896 -0.007945008510202585 -0.9634653668422484 0.39491771566521194 0.016297072944663014 -0.9185719369038046
          0.3955243176855002 0.01643615340263333 -0.9183084269354955 0.4006497546727617 0.018124014482104246 -0.9160520149968059
          0.44625321248854716 0.03449402877513821 -0.8942417079976259 0.5230758461077097 0.06108596054078903 -0.8500942092753678
          0.6001344224699956 0.09155203930451754 -0.7946426234891939 0.6674756802336025 0.12349919400234867 -0.7343188444929489
          0.7347025191052537 0.156074025075014 -0.660191719970251
          <InformationKey name="L2_NORM_RANGE" location="vtkDataArray" length="2">
            <Value index="0">
              1
            </Value>
            <Value index="1">
              1
            </Value>
          </InformationKey>
        </DataArray>
      </PointData>
      <CellData>
      </CellData>
      <Points>
        <DataArray type="Float64" Name="Points" NumberOfComponents="3" format="ascii" RangeMin="247.92096127221953" RangeMax="256.669548676354">
          -7.1250569690778525 -210.04983385893243 -131.50324671719574 -8.570790144354069 -210.3628025604454 -131.90049198057443
          -10.009051880641127 -210.68251679687882 -132.26381076119648 -14.247100534971526 -211.3891482249062 -133.83097792982278
          -15.606866624315854 -211.68475868682467 -134.42583870548444 -16.94511805212799 -212.14721841812351 -135.00939113731934
          -18.202121031043752 -212.60481792443977 -135.60343754276315 -19.35372204978083 -212.98973171851563 -136.2598258158544
          -20.482012963703355 -213.4363611698328 -137.07689080120852 -21.60311683073493 -213.97851371836535 -138.08074881184277
          -22.599375815648127 -214.47079759786894 -139.17903005913033
          <InformationKey name="L2_NORM_RANGE" location="vtkDataArray" length="2">
            <Value index="0">
              247.92096127
            </Value>
            <Value index="1">
              256.66954868
            </Value>
          </InformationKey>
        </DataArray>
      </Points>
      <Cells>
        <DataArray type="Int64" Name="connectivity" format="ascii" RangeMin="0" RangeMax="10">
          0 1 2 3 4 5
          6 7 8 9 10
        </DataArray>
        <DataArray type="Int64" Name="offsets" format="ascii" RangeMin="11" RangeMax="11">
          11
        </DataArray>
        <DataArray type="UInt8" Name="types" format="ascii" RangeMin="4" RangeMax="4">
          4
        </DataArray>
      </Cells>
    </Piece>
  </UnstructuredGrid>
</VTKFile>
