<?xml version="1.0"?>
<VTKFile type="UnstructuredGrid" version="0.1" byte_order="LittleEndian" header_type="UInt32" compressor="vtkZLibDataCompressor">
  <UnstructuredGrid>
    <Piece NumberOfPoints="11" NumberOfCells="1">
      <PointData>
        <DataArray type="Float64" Name="base_vector_1" NumberOfComponents="3" format="ascii" RangeMin="0.9999999999999998" RangeMax="1.0000000000000002">
          -0.9363764104172783 -0.18053011458983517 -0.30101178671313517 -0.9506544164271971 -0.23197039760757054 -0.2060240645197814
          -0.94887695637853 -0.1989012445143027 -0.2450934853978769 -0.8912944524428958 -0.1501883315557262 -0.42782901270136603
          -0.8638140859097205 -0.27978466435421406 -0.4189818212955711 -0.8274939405042436 -0.3801500782436734 -0.41320660260950337
          -0.8084733279894025 -0.332957537370898 -0.4852938864622619 -0.7389053503829073 -0.3187105474489177 -0.5936686534762677
          -0.6230220934210997 -0.37276110191571604 -0.68767189269867 -0.5123817773305723 -0.38012876812629337 -0.7700435272777448
          -0.4176142614709244 -0.28736943571861717 -0.8619844175104665
          <InformationKey name="L2_NORM_RANGE" location="vtkDataArray" length="2">
            <Value index="0">
              1
            </Value>
            <Value index="1">
              1
            </Value>
          </InformationKey>
        </DataArray>
        <DataArray type="Float64" Name="base_vector_2" NumberOfComponents="3" format="ascii" RangeMin="0.9999999999999999" RangeMax="1">
          -0.17186802557043382 0.9835694574996628 -0.05524947113176492 -0.22239150143969338 0.9725251441913776 -0.06882487924391181
          -0.18964657374617722 0.9799526923584961 -0.061048323528745604 -0.14507298224822945 0.9884085221172593 -0.04474844385652268
          -0.261843080197613 0.9598017506550681 -0.10108808432299465 -0.3520995221398034 0.9245844154028898 -0.1454977158000035
          -0.31323109855409076 0.941526911380469 -0.12415052978119781 -0.30928585824437266 0.9431884227045699 -0.12139957646593103
          -0.3609620136801433 0.9169516385098182 -0.17001799114839505 -0.37960804743250076 0.9045873950099986 -0.1939571476216046
          -0.34882614368191106 0.9266808928392203 -0.13993871633937588
          <InformationKey name="L2_NORM_RANGE" location="vtkDataArray" length="2">
            <Value index="0">
              1
            </Value>
            <Value index="1">
              1
            </Value>
          </InformationKey>
        </DataArray>
        <DataArray type="Float64" Name="base_vector_3" NumberOfComponents="3" format="ascii" RangeMin="0.9999999999999998" RangeMax="1.0000000000000002">
          0.3060401931128878 0 -0.9520185923601632 0.21632891765749734 -0.019610674372030852 -0.97612356842554
          0.25232260842055654 -0.011446207668751856 -0.967575467656064 0.4295905362855696 0.022182391000131755 -0.9027513016680695
          0.43042238131465754 0.022386179479005803 -0.90234995020322 0.437355353159969 0.025091369142106325 -0.898938662121556
          0.49825410869187736 0.05163674519430609 -0.865492050637902 0.5986327263569505 0.09391052241829322 -0.7954996371548939
          0.6939379624931656 0.14229846637522428 -0.7058337273594204 0.7703003599791762 0.19293461180361443 -0.6077940366473997
          0.8389985995817285 0.2422422965988168 -0.48723712875603997
          <InformationKey name="L2_NORM_RANGE" location="vtkDataArray" length="2">
            <Value index="0">
              1
            </Value>
            <Value index="1">
              1
            </Value>
          </InformationKey>
        </DataArray>
      </PointData>
      <CellData>
      </CellData>
      <Points>
        <DataArray type="Float64" Name="Points" NumberOfComponents="3" format="ascii" RangeMin="247.92096127221953" RangeMax="257.2884101875154">
          -7.1250569690778525 -210.04983385893243 -131.50324671719574 -8.574151368435428 -210.377116974373 -131.8746253773002
          -10.017319807667938 -210.71469183449275 -132.20002118160417 -14.231528370546823 -211.37294738050235 -133.84124224600473
          -15.564062678781728 -211.67677270440498 -134.48996250289042 -16.854590612168007 -212.21104185440788 -135.11720250292345
          -18.05396416942041 -212.74262645557198 -135.76580313458226 -19.132311559663616 -213.17697770664861 -136.50916053231407
          -20.12744309973634 -213.68336647493626 -137.4533864906431 -21.03377924753631 -214.29941907125263 -138.61781282813726
          -21.75944108954668 -214.8343322093916 -139.89303929943944
          <InformationKey name="L2_NORM_RANGE" location="vtkDataArray" length="2">
            <Value index="0">
              247.92096127
            </Value>
            <Value index="1">
              257.28841019
            </Value>
          </InformationKey>
        </DataArray>
      </Points>
      <Cells>
        <DataArray type="Int64" Name="connectivity" format="ascii" RangeMin="0" RangeMax="10">
          0 1 2 3 4 5
          6 7 8 9 10
        </DataArray>
        <DataArray type="Int64" Name="offsets" format="ascii" RangeMin="11" RangeMax="11">
          11
        </DataArray>
        <DataArray type="UInt8" Name="types" format="ascii" RangeMin="4" RangeMax="4">
          4
        </DataArray>
      </Cells>
    </Piece>
  </UnstructuredGrid>
</VTKFile>
