<?xml version="1.0"?>
<VTKFile type="UnstructuredGrid" version="0.1" byte_order="LittleEndian" header_type="UInt32" compressor="vtkZLibDataCompressor">
  <UnstructuredGrid>
    <Piece NumberOfPoints="11" NumberOfCells="1">
      <PointData>
        <DataArray type="Float64" Name="base_vector_1" NumberOfComponents="3" format="ascii" RangeMin="0.9999999999999997" RangeMax="1">
          -0.9363764104172783 -0.18053011458983517 -0.30101178671313517 -0.9533235810321559 -0.25320767362372665 -0.16449931266144233
          -0.9531849224242905 -0.20655219924503004 -0.2208499324202769 -0.8666898924843136 -0.13636891281934146 -0.47984596474493757
          -0.8251822231703911 -0.32070143054193534 -0.46499988280850896 -0.7651774797232189 -0.4602533838586606 -0.450189123781411
          -0.7352360452004938 -0.39284887575328803 -0.5523565140896913 -0.6202595419488046 -0.36467078044323104 -0.6944734138268966
          -0.42788437017329395 -0.424018098939723 -0.7982002364901598 -0.2473396344190817 -0.41272169367585876 -0.876632139962234
          -0.10042868766252377 -0.256890869630743 -0.9612081771368488
          <InformationKey name="L2_NORM_RANGE" location="vtkDataArray" length="2">
            <Value index="0">
              1
            </Value>
            <Value index="1">
              1
            </Value>
          </InformationKey>
        </DataArray>
        <DataArray type="Float64" Name="base_vector_2" NumberOfComponents="3" format="ascii" RangeMin="0.9999999999999999" RangeMax="1">
          -0.17186802557043382 0.9835694574996628 -0.05524947113176492 -0.24422121148077247 0.966962424124548 -0.07307304697384387
          -0.1972602317324687 0.9782871961041792 -0.06358115220311586 -0.1340699777237145 0.990194208607894 -0.0392513733842439
          -0.2951212899918616 0.9466851408030258 -0.12919236965198333 -0.4164837850967656 0.8870894250241383 -0.19903167778475572
          -0.3655238213158625 0.9160641440126531 -0.16498127198265436 -0.3605794387061239 0.9188273156895969 -0.16043326439684039
          -0.41751900140218023 0.8759824359207615 -0.24152154236517964 -0.4333864923865668 0.8563193892498713 -0.2808794257534639
          -0.41690510058630414 0.8880535821291312 -0.1937807327180439
          <InformationKey name="L2_NORM_RANGE" location="vtkDataArray" length="2">
            <Value index="0">
              1
            </Value>
            <Value index="1">
              1
            </Value>
          </InformationKey>
        </DataArray>
        <DataArray type="Float64" Name="base_vector_3" NumberOfComponents="3" format="ascii" RangeMin="0.9999999999999997" RangeMax="1.0000000000000002">
          0.3060401931128878 0 -0.9520185923601632 0.1775673103667745 -0.029488037392103955 -0.9836667656985629
          0.22918748796531674 -0.01703968678305011 -0.9732331398151646 0.48049336242938023 0.030314169225916072 -0.8764742893008619
          0.48164065729245736 0.030624118454437063 -0.8758335690139869 0.49096301416287297 0.035201912689455196 -0.8704689219421391
          0.5708067044881193 0.08059928581409924 -0.8171190006588209 0.696606466381009 0.15090257066589244 -0.7014041952844234
          0.8016188927598512 0.2299204726201482 -0.5518548061225865 0.8666021310049402 0.31044791376985925 -0.390669731837058
          0.9033848658238119 0.3812714470924605 -0.19628516967034004
          <InformationKey name="L2_NORM_RANGE" location="vtkDataArray" length="2">
            <Value index="0">
              1
            </Value>
            <Value index="1">
              1
            </Value>
          </InformationKey>
        </DataArray>
      </PointData>
      <CellData>
      </CellData>
      <Points>
        <DataArray type="Float64" Name="Points" NumberOfComponents="3" format="ascii" RangeMin="247.92096127221953" RangeMax="257.9769312577398">
          -7.1250569690778525 -210.04983385893243 -131.50324671719574 -8.578164819865915 -210.3983440417262 -131.83558614621535
          -10.026601477709022 -210.7622027327942 -132.10363874672905 -14.20180257868919 -211.3479519751842 -133.85469263617816
          -15.489472749873045 -211.663500451998 -134.58202416527322 -16.699745304662432 -212.3023513258445 -135.26756849054428
          -17.801218999997673 -212.94076678280436 -135.98872651872801 -18.754138705532654 -213.4432395695042 -136.85004405889856
          -19.518668438544086 -214.0215405181984 -137.9530359796511 -20.054972216308695 -214.7109481986181 -139.291479799209
          -20.323214056103204 -215.25369105927618 -140.72992758098079
          <InformationKey name="L2_NORM_RANGE" location="vtkDataArray" length="2">
            <Value index="0">
              247.92096127
            </Value>
            <Value index="1">
              257.97693126
            </Value>
          </InformationKey>
        </DataArray>
      </Points>
      <Cells>
        <DataArray type="Int64" Name="connectivity" format="ascii" RangeMin="0" RangeMax="10">
          0 1 2 3 4 5
          6 7 8 9 10
        </DataArray>
        <DataArray type="Int64" Name="offsets" format="ascii" RangeMin="11" RangeMax="11">
          11
        </DataArray>
        <DataArray type="UInt8" Name="types" format="ascii" RangeMin="4" RangeMax="4">
          4
        </DataArray>
      </Cells>
    </Piece>
  </UnstructuredGrid>
</VTKFile>
