4
Lattice="2.567782485714286 0.0 1.5714285677136562e-16 -1.2838912428549998 2.2237648640176126 1.5714285677110332e-16 0.0 0.0 31.448784399999997" Properties=species:S:1:pos:R:3:fixed:I:3 time=0 pbc="T T T" energy=-13.9830477407
Cu       0.00000000       2.96501983       3.04829281        0        0        0
Cu       2.56778250       1.48250991       7.24146406        1        1        1
Cu       3.85167374       0.74125496       9.33804969        1        1        1
Cu       1.28389125       2.22376487       5.14487844        1        1        1
